HEADER
"PSFversion" "1.00"
"simulator" "spectre"
"version" "20.1.0.155.isr4"
"date" "3:30:12 PM, Wed Apr 5, 2023"
"design" "// Generated for: spectre"
"analysis type" "info"
"analysis name" "outputParameter"
"analysis description" "Circuit Information"
"xVecSorted" "unknown"
"tolerance.relative" 0.00100000
"ReferenceTemperature.Value" 27.0000
"ReferenceTemperature.Units" "C"
TYPE
"bsim4~instparams" STRUCT(
"tempeff" FLOAT DOUBLE PROP(
"units" "C"
"description" "Effective temperature for a single device"
)
"meff" FLOAT DOUBLE PROP(
"description" "Effective multiplicity factor (m-factor)"
)
"weff" FLOAT DOUBLE PROP(
"units" "m"
"description" "Effective channel width (alias=lx62)"
)
"leff" FLOAT DOUBLE PROP(
"units" "m"
"description" "Effective channel length (alias=lx63)"
)
"weffcv" FLOAT DOUBLE PROP(
"units" "m"
"description" "Effective channel width for CV (alias=lx64)"
)
"leffcv" FLOAT DOUBLE PROP(
"units" "m"
"description" "Effective channel length for CV (alias=lx65)"
)
"vfbsd" FLOAT DOUBLE PROP(
"units" "V"
"description" "Flat band Voltage between the gate and Drain/source diffusions (alias=lx75)"
)
"rgbi" FLOAT DOUBLE PROP(
"units" "Ohm"
"description" "Gate bias-independent resistance"
)
"adeff" FLOAT DOUBLE PROP(
"units" "m^2"
"description" "Effective drain area"
)
"aseff" FLOAT DOUBLE PROP(
"units" "m^2"
"description" "Effective source area"
)
"pdeff" FLOAT DOUBLE PROP(
"units" "m"
"description" "Effective drain perimeter"
)
"pseff" FLOAT DOUBLE PROP(
"units" "m"
"description" "Effective source perimeter"
)
) PROP(
"key" "inst"
)
"capacitor~instparams" STRUCT(
"tempeff" FLOAT DOUBLE PROP(
"units" "C"
"description" "Effective temperature for a single device"
)
"meff" FLOAT DOUBLE PROP(
"description" "Effective multiplicity factor (m-factor)"
)
"leff" FLOAT DOUBLE PROP(
"units" "m"
"description" "Effective capacitor length"
)
"weff" FLOAT DOUBLE PROP(
"units" "m"
"description" "Effective capacitor width"
)
"ceff" FLOAT DOUBLE PROP(
"units" "F"
"description" "Effective capacitance(alias=lv1)"
)
) PROP(
"key" "inst"
)
"isource~instparams" STRUCT(
"tempeff" FLOAT DOUBLE PROP(
"units" "C"
"description" "Effective temperature for a single device"
)
) PROP(
"key" "inst"
)
"resistor~instparams" STRUCT(
"leff" FLOAT DOUBLE PROP(
"units" "m"
"description" "Effective resistor length"
)
"weff" FLOAT DOUBLE PROP(
"units" "m"
"description" "Effective resistor width"
)
"reff" FLOAT DOUBLE PROP(
"units" "Ohm"
"description" "Effective resistance"
)
"ceff" FLOAT DOUBLE PROP(
"units" "F"
"description" "Effective capacitance"
)
"tempeff" FLOAT DOUBLE PROP(
"units" "C"
"description" "Effective temperature for a single device"
)
"meff" FLOAT DOUBLE PROP(
"description" "Effective multiplicity factor (m-factor)"
)
) PROP(
"key" "inst"
)
"vsource~instparams" STRUCT(
"tempeff" FLOAT DOUBLE PROP(
"units" "C"
"description" "Effective temperature for a single device"
)
) PROP(
"key" "inst"
)
VALUE
"PM0" "bsim4~instparams" (
2.700000000000000e+01
1.000000000000000e+00
8.618870884032576e-06
1.800000000000000e-07
8.640656624032576e-06
1.800000000000000e-07
-5.732969454163869e-03
0.000000000000000e+00
2.160164156008144e-12
2.160164156008144e-12
9.140656624032583e-06
9.140656624032583e-06
) PROP(
"model" "PM0.pch.4"
)
"PM1" "bsim4~instparams" (
2.700000000000000e+01
1.000000000000000e+00
8.957407467182681e-06
1.800000000000000e-07
8.979193207182681e-06
1.800000000000000e-07
-5.732969454163869e-03
0.000000000000000e+00
3.950845011160380e-12
5.477307856381435e-12
8.800000000000051e-07
1.917838641436536e-05
) PROP(
"model" "PM1.pch.4"
)
"PM2" "bsim4~instparams" (
2.700000000000000e+01
1.000000000000000e+00
7.299693174966043e-06
1.800000000000000e-07
7.321478914966043e-06
1.800000000000000e-07
-5.732969454163869e-03
0.000000000000000e+00
1.830369728741511e-12
1.830369728741511e-12
7.821478914966046e-06
7.821478914966046e-06
) PROP(
"model" "PM2.pch.4"
)
"NM2" "bsim4~instparams" (
2.700000000000000e+01
1.000000000000000e+00
9.852970363652166e-06
1.780000000000000e-07
9.856970363652166e-06
1.800000000000000e-07
1.207526022572706e-02
0.000000000000000e+00
2.464242590913042e-12
2.464242590913042e-12
1.035697036365217e-05
1.035697036365217e-05
) PROP(
"model" "NM2.nch.4"
)
"NM1" "bsim4~instparams" (
2.700000000000000e+01
1.000000000000000e+00
8.991650202182923e-06
1.780000000000000e-07
8.995650202182923e-06
1.800000000000000e-07
1.207526022572706e-02
0.000000000000000e+00
4.227955595025974e-12
4.227955595025974e-12
9.935650202182940e-06
9.935650202182940e-06
) PROP(
"model" "NM1.nch.4"
)
"NM3" "bsim4~instparams" (
2.700000000000000e+01
1.000000000000000e+00
9.513922589455856e-06
1.780000000000000e-07
9.517922589455857e-06
1.800000000000000e-07
1.207526022572706e-02
0.000000000000000e+00
2.379480647363964e-12
2.379480647363964e-12
1.001792258945586e-05
1.001792258945586e-05
) PROP(
"model" "NM3.nch.4"
)
"C1" "capacitor~instparams" (
2.700000000000000e+01
1.000000000000000e+00
nan
nan
1.000000000000000e-15
) PROP(
"model" "capacitor"
)
"I2" "isource~instparams" (
2.700000000000000e+01
) PROP(
"model" "isource"
)
"R0" "resistor~instparams" (
nan
nan
9.833208479325617e+02
nan
2.700000000000000e+01
1.000000000000000e+00
) PROP(
"model" "resistor"
)
"V0" "vsource~instparams" (
2.700000000000000e+01
) PROP(
"model" "vsource"
)
"V1" "vsource~instparams" (
2.700000000000000e+01
) PROP(
"model" "vsource"
)
END
