HEADER
"PSFversion" "1.00"
"simulator" "spectre"
"version" "20.1.0.155.isr4"
"date" "6:51:25 AM, Wed Apr 5, 2023"
"design" "// Generated for: spectre"
"analysis type" "info"
"analysis name" "outputParameter"
"analysis description" "Circuit Information"
"xVecSorted" "unknown"
"tolerance.relative" 0.00100000
"ReferenceTemperature.Value" 27.0000
"ReferenceTemperature.Units" "C"
TYPE
"bsim4~instparams" STRUCT(
"tempeff" FLOAT DOUBLE PROP(
"units" "C"
"description" "Effective temperature for a single device"
)
"meff" FLOAT DOUBLE PROP(
"description" "Effective multiplicity factor (m-factor)"
)
"weff" FLOAT DOUBLE PROP(
"units" "m"
"description" "Effective channel width (alias=lx62)"
)
"leff" FLOAT DOUBLE PROP(
"units" "m"
"description" "Effective channel length (alias=lx63)"
)
"weffcv" FLOAT DOUBLE PROP(
"units" "m"
"description" "Effective channel width for CV (alias=lx64)"
)
"leffcv" FLOAT DOUBLE PROP(
"units" "m"
"description" "Effective channel length for CV (alias=lx65)"
)
"vfbsd" FLOAT DOUBLE PROP(
"units" "V"
"description" "Flat band Voltage between the gate and Drain/source diffusions (alias=lx75)"
)
"rgbi" FLOAT DOUBLE PROP(
"units" "Ohm"
"description" "Gate bias-independent resistance"
)
"adeff" FLOAT DOUBLE PROP(
"units" "m^2"
"description" "Effective drain area"
)
"aseff" FLOAT DOUBLE PROP(
"units" "m^2"
"description" "Effective source area"
)
"pdeff" FLOAT DOUBLE PROP(
"units" "m"
"description" "Effective drain perimeter"
)
"pseff" FLOAT DOUBLE PROP(
"units" "m"
"description" "Effective source perimeter"
)
) PROP(
"key" "inst"
)
"capacitor~instparams" STRUCT(
"tempeff" FLOAT DOUBLE PROP(
"units" "C"
"description" "Effective temperature for a single device"
)
"meff" FLOAT DOUBLE PROP(
"description" "Effective multiplicity factor (m-factor)"
)
"leff" FLOAT DOUBLE PROP(
"units" "m"
"description" "Effective capacitor length"
)
"weff" FLOAT DOUBLE PROP(
"units" "m"
"description" "Effective capacitor width"
)
"ceff" FLOAT DOUBLE PROP(
"units" "F"
"description" "Effective capacitance(alias=lv1)"
)
) PROP(
"key" "inst"
)
"isource~instparams" STRUCT(
"tempeff" FLOAT DOUBLE PROP(
"units" "C"
"description" "Effective temperature for a single device"
)
) PROP(
"key" "inst"
)
"resistor~instparams" STRUCT(
"leff" FLOAT DOUBLE PROP(
"units" "m"
"description" "Effective resistor length"
)
"weff" FLOAT DOUBLE PROP(
"units" "m"
"description" "Effective resistor width"
)
"reff" FLOAT DOUBLE PROP(
"units" "Ohm"
"description" "Effective resistance"
)
"ceff" FLOAT DOUBLE PROP(
"units" "F"
"description" "Effective capacitance"
)
"tempeff" FLOAT DOUBLE PROP(
"units" "C"
"description" "Effective temperature for a single device"
)
"meff" FLOAT DOUBLE PROP(
"description" "Effective multiplicity factor (m-factor)"
)
) PROP(
"key" "inst"
)
"vsource~instparams" STRUCT(
"tempeff" FLOAT DOUBLE PROP(
"units" "C"
"description" "Effective temperature for a single device"
)
) PROP(
"key" "inst"
)
VALUE
"PM0" "bsim4~instparams" (
2.700000000000000e+01
1.000000000000000e+00
5.931174461779090e-06
2.450000000000000e-07
5.952960201779090e-06
2.450000000000000e-07
-5.732969454163869e-03
0.000000000000000e+00
8.334144282490726e-13
8.334144282490726e-13
6.232960201779091e-06
6.232960201779091e-06
) PROP(
"model" "PM1.pch.4"
)
"PM1" "bsim4~instparams" (
2.700000000000000e+01
1.000000000000000e+00
5.931174461779090e-06
2.450000000000000e-07
5.952960201779090e-06
2.450000000000000e-07
-5.732969454163869e-03
0.000000000000000e+00
8.334144282490726e-13
8.334144282490726e-13
6.232960201779091e-06
6.232960201779091e-06
) PROP(
"model" "PM1.pch.4"
)
"PM7" "bsim4~instparams" (
2.700000000000000e+01
1.000000000000000e+00
4.496553719007445e-06
2.450000000000000e-07
4.518339459007445e-06
2.450000000000000e-07
-5.732969454163869e-03
0.000000000000000e+00
6.325675242610422e-13
6.325675242610422e-13
4.798339459007446e-06
4.798339459007446e-06
) PROP(
"model" "PM7.pch.4"
)
"PM11" "bsim4~instparams" (
2.700000000000000e+01
1.000000000000000e+00
1.282142600000000e-07
2.450000000000000e-07
1.500000000000000e-07
2.450000000000000e-07
-5.732969454163869e-03
0.000000000000000e+00
2.100000000000000e-14
2.100000000000000e-14
4.300000000000000e-07
4.300000000000000e-07
) PROP(
"model" "PM11.pch.28"
)
"PM18" "bsim4~instparams" (
2.700000000000000e+01
1.000000000000000e+00
1.978214260000000e-06
2.450000000000000e-07
2.000000000000000e-06
2.450000000000000e-07
-5.732969454163869e-03
0.000000000000000e+00
2.100000000000000e-13
2.100000000000000e-13
1.280000000000000e-06
1.280000000000000e-06
) PROP(
"model" "PM18.pch.4"
)
"PM25" "bsim4~instparams" (
2.700000000000000e+01
1.000000000000000e+00
2.778214260000000e-06
2.450000000000000e-07
2.800000000000000e-06
2.450000000000000e-07
-5.732969454163869e-03
0.000000000000000e+00
2.100000000000000e-13
2.100000000000000e-13
4.800000000000001e-07
4.800000000000001e-07
) PROP(
"model" "PM25.pch.4"
)
"PM22" "bsim4~instparams" (
2.700000000000000e+01
1.000000000000000e+00
1.943373146781014e-06
2.450000000000000e-07
1.965158886781014e-06
2.450000000000000e-07
-5.732969454163869e-03
0.000000000000000e+00
2.751222441493420e-13
2.751222441493420e-13
2.245158886781014e-06
2.245158886781014e-06
) PROP(
"model" "PM28.pch.10"
)
"PM28" "bsim4~instparams" (
2.700000000000000e+01
1.000000000000000e+00
1.943373146781014e-06
2.450000000000000e-07
1.965158886781014e-06
2.450000000000000e-07
-5.732969454163869e-03
0.000000000000000e+00
2.751222441493420e-13
2.751222441493420e-13
2.245158886781014e-06
2.245158886781014e-06
) PROP(
"model" "PM28.pch.10"
)
"PM24" "bsim4~instparams" (
2.700000000000000e+01
1.000000000000000e+00
5.182310414783614e-06
2.450000000000000e-07
5.204096154783614e-06
2.450000000000000e-07
-5.732969454163869e-03
0.000000000000000e+00
7.285734616697058e-13
7.285734616697058e-13
5.484096154783615e-06
5.484096154783615e-06
) PROP(
"model" "PM27.pch.4"
)
"PM23" "bsim4~instparams" (
2.700000000000000e+01
1.000000000000000e+00
5.182310414783614e-06
2.450000000000000e-07
5.204096154783614e-06
2.450000000000000e-07
-5.732969454163869e-03
0.000000000000000e+00
7.285734616697058e-13
7.285734616697058e-13
5.484096154783615e-06
5.484096154783615e-06
) PROP(
"model" "PM27.pch.4"
)
"PM29" "bsim4~instparams" (
2.700000000000000e+01
1.000000000000000e+00
5.182310414783614e-06
2.450000000000000e-07
5.204096154783614e-06
2.450000000000000e-07
-5.732969454163869e-03
0.000000000000000e+00
7.285734616697058e-13
7.285734616697058e-13
5.484096154783615e-06
5.484096154783615e-06
) PROP(
"model" "PM27.pch.4"
)
"PM27" "bsim4~instparams" (
2.700000000000000e+01
1.000000000000000e+00
5.182310414783614e-06
2.450000000000000e-07
5.204096154783614e-06
2.450000000000000e-07
-5.732969454163869e-03
0.000000000000000e+00
7.285734616697058e-13
7.285734616697058e-13
5.484096154783615e-06
5.484096154783615e-06
) PROP(
"model" "PM27.pch.4"
)
"NM22" "bsim4~instparams" (
2.700000000000000e+01
1.000000000000000e+00
1.482963900050092e-06
2.430000000000000e-07
1.486963900050092e-06
2.450000000000000e-07
1.207526022572706e-02
0.000000000000000e+00
2.081749460070128e-13
2.081749460070128e-13
1.766963900050092e-06
1.766963900050092e-06
) PROP(
"model" "NM23.nch.10"
)
"NM23" "bsim4~instparams" (
2.700000000000000e+01
1.000000000000000e+00
1.482963900050092e-06
2.430000000000000e-07
1.486963900050092e-06
2.450000000000000e-07
1.207526022572706e-02
0.000000000000000e+00
2.081749460070128e-13
2.081749460070128e-13
1.766963900050092e-06
1.766963900050092e-06
) PROP(
"model" "NM23.nch.10"
)
"NM21" "bsim4~instparams" (
2.700000000000000e+01
1.000000000000000e+00
1.047485006692688e-06
2.430000000000000e-07
1.051485006692689e-06
2.450000000000000e-07
1.207526022572706e-02
0.000000000000000e+00
1.472079009369764e-13
1.472079009369764e-13
1.331485006692688e-06
1.331485006692688e-06
) PROP(
"model" "NM24.nch.10"
)
"NM24" "bsim4~instparams" (
2.700000000000000e+01
1.000000000000000e+00
1.047485006692688e-06
2.430000000000000e-07
1.051485006692689e-06
2.450000000000000e-07
1.207526022572706e-02
0.000000000000000e+00
1.472079009369764e-13
1.472079009369764e-13
1.331485006692688e-06
1.331485006692688e-06
) PROP(
"model" "NM24.nch.10"
)
"NM0" "bsim4~instparams" (
2.700000000000000e+01
1.000000000000000e+00
6.099236125861331e-07
2.430000000000000e-07
6.139236125861331e-07
2.450000000000000e-07
1.207526022572706e-02
0.000000000000000e+00
8.594930576205863e-14
8.594930576205863e-14
8.939236125861330e-07
8.939236125861330e-07
) PROP(
"model" "NM27.nch.16"
)
"NM1" "bsim4~instparams" (
2.700000000000000e+01
1.000000000000000e+00
6.099236125861331e-07
2.430000000000000e-07
6.139236125861331e-07
2.450000000000000e-07
1.207526022572706e-02
0.000000000000000e+00
8.594930576205863e-14
8.594930576205863e-14
8.939236125861330e-07
8.939236125861330e-07
) PROP(
"model" "NM27.nch.16"
)
"NM20" "bsim4~instparams" (
2.700000000000000e+01
1.000000000000000e+00
6.099236125861331e-07
2.430000000000000e-07
6.139236125861331e-07
2.450000000000000e-07
1.207526022572706e-02
0.000000000000000e+00
8.594930576205863e-14
8.594930576205863e-14
8.939236125861330e-07
8.939236125861330e-07
) PROP(
"model" "NM27.nch.16"
)
"NM26" "bsim4~instparams" (
2.700000000000000e+01
1.000000000000000e+00
6.099236125861331e-07
2.430000000000000e-07
6.139236125861331e-07
2.450000000000000e-07
1.207526022572706e-02
0.000000000000000e+00
8.594930576205863e-14
8.594930576205863e-14
8.939236125861330e-07
8.939236125861330e-07
) PROP(
"model" "NM27.nch.16"
)
"NM35" "bsim4~instparams" (
2.700000000000000e+01
1.000000000000000e+00
6.099236125861331e-07
2.430000000000000e-07
6.139236125861331e-07
2.450000000000000e-07
1.207526022572706e-02
0.000000000000000e+00
8.594930576205863e-14
8.594930576205863e-14
8.939236125861330e-07
8.939236125861330e-07
) PROP(
"model" "NM27.nch.16"
)
"NM27" "bsim4~instparams" (
2.700000000000000e+01
1.000000000000000e+00
6.099236125861331e-07
2.430000000000000e-07
6.139236125861331e-07
2.450000000000000e-07
1.207526022572706e-02
0.000000000000000e+00
8.594930576205863e-14
8.594930576205863e-14
8.939236125861330e-07
8.939236125861330e-07
) PROP(
"model" "NM27.nch.16"
)
"C0" "capacitor~instparams" (
2.700000000000000e+01
1.000000000000000e+00
nan
nan
2.000000000000000e-12
) PROP(
"model" "capacitor"
)
"I9" "isource~instparams" (
2.700000000000000e+01
) PROP(
"model" "isource"
)
"I18" "isource~instparams" (
2.700000000000000e+01
) PROP(
"model" "isource"
)
"R0" "resistor~instparams" (
nan
nan
1.000000000000000e+03
nan
2.700000000000000e+01
1.000000000000000e+00
) PROP(
"model" "resistor"
)
"V6" "vsource~instparams" (
2.700000000000000e+01
) PROP(
"model" "vsource"
)
"V1" "vsource~instparams" (
2.700000000000000e+01
) PROP(
"model" "vsource"
)
"V5" "vsource~instparams" (
2.700000000000000e+01
) PROP(
"model" "vsource"
)
"Vin" "vsource~instparams" (
2.700000000000000e+01
) PROP(
"model" "vsource"
)
"V7" "vsource~instparams" (
2.700000000000000e+01
) PROP(
"model" "vsource"
)
END
